/*--------------------------------*- C++ -*----------------------------------*\
| =========                 |                                                 |
| \\      /  F ield         | OpenFOAM: The Open Source CFD Toolbox           |
|  \\    /   O peration     | Version:  plus                                  |
|   \\  /    A nd           | Web:      www.OpenFOAM.com                      |
|    \\/     M anipulation  |                                                 |
\*---------------------------------------------------------------------------*/
FoamFile {
  version     2.0;
  format      ascii;
  class       volScalarField;
  location    "0";
  object      O2;
}
// * * * * * * * * * * * * * * * * * * * * * * * * * * * * * * * * * * * * * //

dimensions      [0 0 0 0 0 0 0];

internalField   uniform 0.2;

boundaryField {
  up {
    type            symmetryPlane;
  }

  down {
    type            symmetryPlane;
  }

  left
  {
    type            fixedValue;
    value           $internalField;
  }
  right
  {
    type            zeroGradient;
  }
  flow_to_porousMat
  {
    type            heterogeneousReaction;
    ky              -2.0;
    value		    $internalField;
/*    type            fixedValueToNbrValue;*/
/*    nbr             O2;*/
/*    value           $internalField;*/
  }
}


// ************************************************************************* //
