/*--------------------------------*- C++ -*----------------------------------*\
  =========                 |
  \\      /  F ield         | OpenFOAM: The Open Source CFD Toolbox
   \\    /   O peration     | Website:  https://openfoam.org
    \\  /    A nd           | Version:  7
     \\/     M anipulation  |
\*---------------------------------------------------------------------------*/
FoamFile
{
    version     2.0;
    format      ascii;
    class       volScalarField;
    location    "0.000000/graphite";
    object      cellToRegion;
}
// * * * * * * * * * * * * * * * * * * * * * * * * * * * * * * * * * * * * * //

dimensions      [0 0 0 0 0 0 0];

internalField   uniform 3;

boundaryField
{
    g_front
    {
        type            wedge;
    }
    g_back
    {
        type            wedge;
    }
    graphite_to_flow
    {
        type            calculated;
        value           uniform 0;
    }
    graphite_to_alumina
    {
        type            calculated;
        value           uniform 0;
    }
    graphite_to_porousMat
    {
        type            calculated;
        value           uniform 0;
    }
}


// ************************************************************************* //
