/*--------------------------------*- C++ -*----------------------------------*\
| =========                 |                                                 |
| \\      /  F ield         | OpenFOAM: The Open Source CFD Toolbox           |
|  \\    /   O peration     | Version:  2.2.1                                 |
|   \\  /    A nd           | Web:      www.OpenFOAM.org                      |
|    \\/     M anipulation  |                                                 |
\*---------------------------------------------------------------------------*/
FoamFile {
  version     2.0;
  format      ascii;
  class       volVectorField;
  location    "0";
  object      cellMotionU;
}
// * * * * * * * * * * * * * * * * * * * * * * * * * * * * * * * * * * * * * //

dimensions      [0 1 -1 0 0 0 0];

internalField   uniform (0 0 0);

boundaryField {

    fuel
    {
        type            fixedValue;
        value           uniform (0 0 0);
    }

    shield
    {
        type            fixedValue;
        value           uniform (0 0 0);
    }

    outlet
    {
        type            fixedValue;
        value           uniform (0 0 0);
    }

    farfield
    {
        type            fixedValue;
        value           uniform (0 0 0);
    }

    burner
    {
        type            fixedValue;
        value           uniform (0 0 0);
    }

    f_front
    {
        type            wedge;
    }

    f_back
    {
        type            wedge;
    }

    flow_to_porousMat
    {
      type            fixedValueToNbrValue;
      nbr             cellMotionU;
      value           $internalField;
    } 

    flow_to_graphite
    {
        type            fixedValue;
        value           uniform (0 0 0);
    }
  
}



// ************************************************************************* //
