/*--------------------------------*- C++ -*----------------------------------*\
  =========                 |
  \\      /  F ield         | OpenFOAM: The Open Source CFD Toolbox
   \\    /   O peration     | Website:  https://openfoam.org
    \\  /    A nd           | Version:  7
     \\/     M anipulation  |
\*---------------------------------------------------------------------------*/
FoamFile
{
    version     2.0;
    format      ascii;
    class       volScalarField;
    location    "0.000000/alumina";
    object      cellToRegion;
}
// * * * * * * * * * * * * * * * * * * * * * * * * * * * * * * * * * * * * * //

dimensions      [0 0 0 0 0 0 0];

internalField   uniform 2;

boundaryField
{
    a_front
    {
        type            wedge;
    }
    a_back
    {
        type            wedge;
    }
    alumina_to_graphite
    {
        type            calculated;
        value           uniform 0;
    }
    alumina_to_porousMat
    {
        type            calculated;
        value           uniform 0;
    }
}


// ************************************************************************* //
