/*--------------------------------*- C++ -*----------------------------------*\
  =========                 |
  \\      /  F ield         | OpenFOAM: The Open Source CFD Toolbox
   \\    /   O peration     | Website:  https://openfoam.org
    \\  /    A nd           | Version:  7
     \\/     M anipulation  |
\*---------------------------------------------------------------------------*/
FoamFile
{
    version     2.0;
    format      ascii;
    class       volScalarField;
    location    "0";
    object      alphat;
}
// * * * * * * * * * * * * * * * * * * * * * * * * * * * * * * * * * * * * * //

dimensions      [1 -1 -1 0 0 0 0];

internalField   uniform 0.0;

boundaryField
{
    burner
    {
        //type            calculated;
        //value           $internalField;
        type            compressible::alphatWallFunction;
        //Prt             0.85;
        value           $internalField;
    }

    outlet
    {
        type            calculated;
        value           $internalField;
    }

    farfield
    {
        type            calculated;
        value           $internalField;
    }

    f_front
    {
        type            wedge;
    }

    f_back
    {
        type            wedge;
    }

    fuel
    {
        type            calculated;
        value           $internalField;
    }

    shield
    {
        type            calculated;
        value           $internalField;
    }

    flow_to_porousMat
    {
        //type            calculated;
        //value           $internalField;
        type            compressible::alphatWallFunction;
        //Prt             0.85;
        value           $internalField;
    }

    flow_to_graphite
    {
        //type            calculated;
        //value           $internalField;
        type            compressible::alphatWallFunction;
        //Prt             0.85;
        value           $internalField;
    }
}


// ************************************************************************* //
