/*--------------------------------*- C++ -*----------------------------------*\
  =========                 |
  \\      /  F ield         | OpenFOAM: The Open Source CFD Toolbox
   \\    /   O peration     | Website:  https://openfoam.org
    \\  /    A nd           | Version:  7
     \\/     M anipulation  |
\*---------------------------------------------------------------------------*/
FoamFile
{
    version     2.0;
    format      ascii;
    class       volScalarField;
    location    "0";
    object      k;
}
// * * * * * * * * * * * * * * * * * * * * * * * * * * * * * * * * * * * * * //

dimensions      [0 2 -2 0 0 0 0];

internalField   uniform 1e-8;

boundaryField
{
    burner
    {
        type            kqRWallFunction;
        value           $internalField;
    }

    outlet
    {
        type            zeroGradient;
    }

    farfield
    {
        type            zeroGradient;
    }

    f_front
    {
        type            wedge;
    }

    f_back
    {
        type            wedge;
    }

    fuel
    {
        type            turbulentIntensityKineticEnergyInlet;
        intensity       1e-8;
        value           $internalField;
    }

    shield
    {
        type            turbulentIntensityKineticEnergyInlet;
        intensity       1e-8;
        value           $internalField;
    }

    flow_to_porousMat
    {
        type            kqRWallFunction;
        value           $internalField;
    }

    flow_to_graphite
    {
        type            kqRWallFunction;
        value           $internalField;
    }
}


// ************************************************************************* //
