/*--------------------------------*- C++ -*----------------------------------*\
  =========                 |
  \\      /  F ield         | OpenFOAM: The Open Source CFD Toolbox
   \\    /   O peration     | Website:  https://openfoam.org
    \\  /    A nd           | Version:  7
     \\/     M anipulation  |
\*---------------------------------------------------------------------------*/
FoamFile
{
    version         2.0;
    format          ascii;
    class           volScalarField;
    object          T;
}

dimensions      [ 0 0 0 1 0 0 0 ];

internalField   uniform 300;

boundaryField
{
    alumina_to_graphite
    {
        type            fixedValue;
        value           uniform 300;    
//        type            compressible::turbulentTemperatureCoupledBaffleMixed;
//        value           uniform 300;
//        Tnbr 		    Ta;
//        kappaMethod     lookup;
//        kappa		    k_abl_sym;
    }
    alumina_to_porousMat
    {
        type            fixedValue;
        value           uniform 300;    
//        type            compressible::turbulentTemperatureCoupledBaffleMixed;
//        value           uniform 300;
//        Tnbr 		    Ta;
//        kappaMethod     lookup;
//        kappa		    k_abl_sym;
    }

    a_back
    {
        type            wedge;
    }

    a_front
    {
        type            wedge;
    }

    defaultFaces
    {
        type            empty;
    }
}


// ************************************************************************* //
