/*--------------------------------*- C++ -*----------------------------------*\
  =========                 |
  \\      /  F ield         | OpenFOAM: The Open Source CFD Toolbox
   \\    /   O peration     | Website:  https://openfoam.org
    \\  /    A nd           | Version:  7
     \\/     M anipulation  |
\*---------------------------------------------------------------------------*/
FoamFile
{
    version     2.0;
    format      ascii;
    class       volScalarField;
    object      p;
}
// * * * * * * * * * * * * * * * * * * * * * * * * * * * * * * * * * * * * * //

dimensions      [1 -1 -2 0 0 0 0];

internalField   uniform 10132.5;

boundaryField
{
    inlet
    {
        type zeroGradient;
/*        type            totalPressure;*/
/*        p0              uniform 10132.5;*/
/*        value           uniform 10132.5;*/
    }

    outlet
    {
        type            fixedValue;
        value           uniform 10132.5;
    }

    wall
    {
        type            zeroGradient;
    }

    back
    {
        type            empty;
    }

    front
    {
        type            empty;
    }

    injector
    {
        type            zeroGradient;
    }
}

// ************************************************************************* //
