/*--------------------------------*- C++ -*----------------------------------*\
  =========                 |
  \\      /  F ield         | OpenFOAM: The Open Source CFD Toolbox
   \\    /   O peration     | Website:  https://openfoam.org
    \\  /    A nd           | Version:  7
     \\/     M anipulation  |
\*---------------------------------------------------------------------------*/
FoamFile
{
    version     2.0;
    format      ascii;
    class       volScalarField;
    object      T;
}
// * * * * * * * * * * * * * * * * * * * * * * * * * * * * * * * * * * * * * //

dimensions      [0 0 0 1 0 0 0];

internalField   uniform 300.0;

boundaryField
{
    inlet
    {
        type            totalTemperature;
        T0              uniform 300.0;
        value           uniform 300.0;
        gamma           1.4;
    }

    outlet
    {
        type            inletOutlet;
        inletValue      uniform 300.0;
    }

    wall
    {
        type            fixedValue;
        value           uniform 300.0;
    }

    back
    {
        type            empty;
    }

    front
    {
        type            empty;
    }

    injector
    {
        type            fixedValue;
        value           uniform 300.0;
    }
}

// ************************************************************************* //
