/*--------------------------------*- C++ -*----------------------------------*\
  =========                 |
  \\      /  F ield         | OpenFOAM: The Open Source CFD Toolbox
   \\    /   O peration     | Website:  https://openfoam.org
    \\  /    A nd           | Version:  10
     \\/     M anipulation  |
\*---------------------------------------------------------------------------*/
FoamFile
{
    version     2.0;
    format      binary;
    class       volVectorField;
    location    "0.000000";
    object      U;
}
// * * * * * * * * * * * * * * * * * * * * * * * * * * * * * * * * * * * * * //

dimensions      [0 1 -1 0 0 0 0];

internalField   uniform (0.6194623281394 0 0);

boundaryField
{
    frontAndBack
    {
        type            empty;
    }
    outlet
    {
        type            inletOutlet;
        inletValue      uniform ( 4.996919928327 0 0 );
    }
    inlet
    {
        type            fixedValue;
        value           uniform (0.6194623281394 0 0);
    }
}


// ************************************************************************* //
