/*--------------------------------*- C++ -*----------------------------------*\
  =========                 |
  \\      /  F ield         | OpenFOAM: The Open Source CFD Toolbox
   \\    /   O peration     | Website:  https://openfoam.org
    \\  /    A nd           | Version:  7
     \\/     M anipulation  |
\*---------------------------------------------------------------------------*/
FoamFile
{
    version     2.0;
    format      ascii;
    class       volScalarField;
    location    "0/flow";
    object      p_rgh;
}
// * * * * * * * * * * * * * * * * * * * * * * * * * * * * * * * * * * * * * //

dimensions      [ 1 -1 -2 0 0 0 0 ];

internalField   uniform 101325.0;

boundaryField
{
    fuel
    {
        type            fixedFluxExtrapolatedPressure;
    }

    shield
    {
        type            fixedFluxExtrapolatedPressure;
    }

    outlet
    {
        type            fixedMeanOutletInlet;
        value           uniform 101325.0;
        meanValue       uniform 101325.0;
    }

    farfield
    {
        type            waveTransmissive;
        gamma           1.4;
        fieldInf        101325.0;
        lInf            0.1;
        value           uniform 101325.0;
    }

    burner
    {
        type            fixedFluxExtrapolatedPressure;
    }

    f_front
    {
        type            wedge;
    }

    f_back
    {
        type            wedge;
    }

    flow_to_holder
    {
        type            fixedFluxExtrapolatedPressure;
        value           101325.0;
    }

    flow_to_slug
    {
        type            fixedFluxExtrapolatedPressure;
    }
}


// ************************************************************************* //
