/*--------------------------------*- C++ -*----------------------------------*\
  =========                 |
  \\      /  F ield         | OpenFOAM: The Open Source CFD Toolbox
   \\    /   O peration     | Website:  https://openfoam.org
    \\  /    A nd           | Version:  7
     \\/     M anipulation  |
\*---------------------------------------------------------------------------*/
FoamFile
{
    version         2.0;
    format          ascii;
    class           volScalarField;
    object          T;
}

dimensions      [ 0 0 0 1 0 0 0 ];

internalField   uniform 300;

boundaryField
{
    slug_to_holder
    {    
        type            zeroGradient;
    }

    slug_to_flow
    {   
        //type            compressible::turbulentTemperatureRadCoupledMixed;
        //qr              Qr;
        //qrNbr           none; //qr;
        type            compressible::turbulentTemperatureCoupledBaffleMixed;
        value           uniform 300;
        Tnbr 		T;
        kappaMethod     lookup;
        kappa		k_abl_sym;
    }

    s_adiabatic
    {
        type            zeroGradient;
    }

    s_back
    {
        type            wedge;
    }

    s_front
    {
        type            wedge;
    }
}


// ************************************************************************* //
