/*--------------------------------*- C++ -*----------------------------------*\
| =========                 |                                                 |
| \\      /  F ield         | OpenFOAM: The Open Source CFD Toolbox           |
|  \\    /   O peration     | Version:  2.2.1                                 |
|   \\  /    A nd           | Web:      www.OpenFOAM.org                      |
|    \\/     M anipulation  |                                                 |
\*---------------------------------------------------------------------------*/
FoamFile {
  version     2.0;
  format      ascii;
  class       volScalarField;
  location    "0";
  object      A1OH;
}
// * * * * * * * * * * * * * * * * * * * * * * * * * * * * * * * * * * * * * //

dimensions      [0 0 0 0 0 0 0];

internalField   uniform 0;

boundaryField {
    porousMat_to_flow
    {
        //type            compressible::turbulentTemperatureCoupledBaffleMixed;
        //value           uniform 0.0;
        //Tnbr 	        A1OH;
        //kappaMethod     lookup;
        //kappa           "diffY[A1OH]"; 
        type            fixedValue;
        value           $internalField;
    }
  
    s_back
    {
        type            wedge;
    }

    s_front
    {
        type            wedge;
    }

    porousMat_to_alumina
    {
        type            zeroGradient;
    }

    porousMat_to_graphite
    {
        type            zeroGradient;
    }
}



// ************************************************************************* //
